/*--------------------------------*- C++ -*----------------------------------*\
  =========                 |
  \\      /  F ield         | OpenFOAM: The Open Source CFD Toolbox
   \\    /   O peration     | Website:  https://openfoam.org
    \\  /    A nd           | Version:  7
     \\/     M anipulation  |
\*---------------------------------------------------------------------------*/
FoamFile
{
    version     2.0;
    format      ascii;
    class       volScalarField;
    location    "0";
    object      omega;
}
// * * * * * * * * * * * * * * * * * * * * * * * * * * * * * * * * * * * * * //

dimensions      [0 0 -1 0 0 0 0];

internalField   uniform 17.46;

boundaryField
{
    inlet
    {
        type            fixedValue;
        value           uniform 367.3;
    }

    outlet
    {
        type            zeroGradient;
    }

    top
    {
        type            zeroGradient;
    }

    bottom
    {
        type            zeroGradient;
    }

    flatPlate
    {
        type            fixedValue;
        value           uniform 1e7;
    }

    front
    {
        type            empty;
    }

    back
    {
        type            empty;
    }
}


// ************************************************************************* //
